Al300                                   
           1
     9.268400    0.000000    0.000000
     0.000000    9.268400    0.000000
     0.000000    0.000000    9.268400
   B 
 100
Direct configuration=     1
   0.64735600  0.64335000  0.95510400
   0.47612100  0.08440890  0.92664600
   0.61026000  0.45931300  0.88269100
   0.13494200  0.20064900  0.99579500
   0.89219600  0.56784100  0.90644600
   0.28963700  0.59167000  0.88990600
   0.22973400  0.06583410  0.96839200
   0.81538700  0.97461200  0.94735700
   0.47313300  0.94067200  0.96814400
   0.05132420  0.72833100  0.98800500
   0.30446700  0.96389600  0.88509100
   0.75168700  0.17404000  0.93548400
   0.54578600  0.23638000  0.92124900
   0.92642100  0.77402400  0.99868100
   0.88694600  0.33931100  0.91964700
   0.11095800  0.87212600  0.90382400
   0.18072100  0.41737600  0.96354600
   0.72048700  0.79527200  0.91614600
   0.56838700  0.62825500  0.62777200
   0.10844700  0.30691700  0.83720000
   0.15997400  0.68766300  0.18403700
   0.20400900  0.06257130  0.50877100
   0.95335800  0.89873700  0.53455300
   0.33752800  0.17790000  0.48664200
   0.96133700  0.18322000  0.84545200
   0.45462600  0.97010500  0.53759900
   0.61447500  0.48146000  0.20154800
   0.73208500  0.03205630  0.02215900
   0.74550800  0.70248100  0.47550300
   0.11119200  0.43417700  0.73554300
   0.88717000  0.58245600  0.45408700
   0.61201400  0.01417270  0.87127700
   0.48657400  0.18354900  0.41133300
   0.37525400  0.86108100  0.22482400
   0.46692500  0.85552100  0.64786000
   0.07315570  0.04304090  0.66907900
   0.33608200  0.47882100  0.40998900
   0.28421300  0.07848860  0.65426500
   0.08756790  0.11815500  0.83086500
   0.86858200  0.69255400  0.30054300
   0.78010200  0.47177500  0.82497800
   0.46870400  0.40595300  0.35225600
   0.96772800  0.29552000  0.67778300
   0.23962000  0.58892200  0.55623100
   0.48979400  0.46879300  0.03441870
   0.84003700  0.82350500  0.00887157
   0.03000970  0.96210100  0.75074200
   0.66585400  0.28791400  0.31997200
   0.98941900  0.17866600  0.30451500
   0.77113700  0.37161500  0.45785200
   0.90097000  0.58091700  0.12911100
   0.15109100  0.48256200  0.42356400
   0.86740200  0.03215490  0.48074800
   0.71304600  0.75805300  0.24930400
   0.37398000  0.03810370  0.00898113
   0.81891800  0.04331090  0.84565800
   0.61499900  0.89743200  0.23671700
   0.42275800  0.63737600  0.51908100
   0.59373300  0.56918700  0.43873300
   0.12081900  0.26355900  0.21836700
   0.16496100  0.98204200  0.41594800
   0.48330100  0.72788200  0.30349900
   0.59847100  0.11170700  0.25163200
   0.26888000  0.39045400  0.20450300
   0.42376700  0.29594300  0.18628700
   0.84966800  0.14520000  0.58544900
   0.06673420  0.33076400  0.61619100
   0.02095400  0.76611300  0.67141100
   0.69508200  0.33833800  0.14683800
   0.20856900  0.75128800  0.60388700
   0.90796300  0.34086300  0.33343300
   0.44443000  0.11416000  0.16805800
   0.12330000  0.61204000  0.86146000
   0.39860200  0.37325600  0.71361600
   0.63108900  0.86997100  0.78079900
   0.60624100  0.84055900  0.48538400
   0.69993100  0.72058400  0.04691780
   0.16371300  0.17580100  0.08489240
   0.46743900  0.19809200  0.61120600
   0.80041700  0.29827400  0.00161033
   0.69910100  0.30614800  0.83920300
   0.48682000  0.92836500  0.15383700
   0.17382100  0.84117000  0.28374200
   0.09924930  0.33997000  0.36000600
   0.44189400  0.44473400  0.86197700
   0.63110700  0.21509100  0.69475600
   0.43115800  0.57641500  0.20441300
   0.79861000  0.15686500  0.23182600
   0.20030100  0.96883400  0.62673600
   0.04790870  0.84464900  0.08927760
   0.06333090  0.13857400  0.35343700
   0.76708400  0.94661600  0.56502700
   0.16632600  0.25717900  0.50196500
   0.55301700  0.59483000  0.79715500
   0.76708800  0.33131800  0.64101900
   0.11001900  0.72225200  0.42519200
   0.28308900  0.55953500  0.13168300
   0.37238600  0.02405240  0.35725500
   0.77373700  0.49715400  0.28349500
   0.28219300  0.86894000  0.74411000
Direct configuration=     2
   0.65031718  0.64126293  0.95201887
   0.47828045  0.08514660  0.92712807
   0.61221232  0.45478878  0.88159622
   0.13129776  0.20291970  0.98617231
   0.89148738  0.57067205  0.90563818
   0.29499822  0.59380384  0.89067159
   0.22859747  0.06739773  0.96869713
   0.81512586  0.97342044  0.94915943
   0.47332297  0.94291848  0.96561805
   0.05527563  0.72747083  0.98813104
   0.30673124  0.96278862  0.88162488
   0.75127560  0.17548202  0.93506010
   0.54615575  0.23628771  0.91920306
   0.92934899  0.77026074  0.99995031
   0.89274521  0.33752782  0.91732443
   0.11198955  0.87206524  0.90405466
   0.18019778  0.41744431  0.96093096
   0.72233079  0.79471957  0.91339442
   0.56818930  0.62579690  0.62518501
   0.10597542  0.30744399  0.83500244
   0.15961834  0.68865819  0.18471525
   0.20668145  0.06579013  0.50963619
   0.95379475  0.89654017  0.53591813
   0.33737047  0.17980785  0.49057472
   0.95574921  0.18635208  0.84594162
   0.45263569  0.96655921  0.53879601
   0.61660008  0.47919455  0.20255074
   0.73156338  0.03357734  0.02590023
   0.74173524  0.70410146  0.47500542
   0.11547146  0.43520320  0.73566563
   0.88735127  0.58370462  0.45314955
   0.60976945  0.01133497  0.87375823
   0.48723202  0.18492216  0.41394948
   0.37351892  0.85869084  0.22415859
   0.46715305  0.85406623  0.64627517
   0.07239178  0.04773585  0.67012531
   0.33797980  0.47659409  0.40643222
   0.28331580  0.08084705  0.65715252
   0.09141581  0.11447724  0.83131142
   0.86507440  0.68869245  0.30082336
   0.77868490  0.47238676  0.82139170
   0.46763001  0.40479806  0.35055320
   0.96263099  0.29115257  0.67742022
   0.23931318  0.58977493  0.55954590
   0.48778556  0.46909982  0.03224018
   0.83263005  0.82796647  0.00946354
   0.02962322  0.96050100  0.75340892
   0.66739208  0.28597665  0.32365526
   0.98322784  0.18586040  0.29654568
   0.77323263  0.37308233  0.45913067
   0.89810643  0.58162469  0.12726688
   0.15003276  0.48432572  0.42512201
   0.86957520  0.03213004  0.47782944
   0.71345026  0.76222233  0.24873959
   0.37019401  0.03589319  0.01175930
   0.82061297  0.04310199  0.84488499
   0.61787625  0.89670154  0.23825181
   0.42200041  0.63575367  0.51831897
   0.59299480  0.56783429  0.44064860
   0.12093903  0.26686965  0.21739798
   0.16344338  0.98010349  0.41310302
   0.48238406  0.72683791  0.30367595
   0.59573740  0.11279741  0.25349758
   0.26851442  0.38839042  0.20259435
   0.42469418  0.29751900  0.18584762
   0.84870132  0.14787592  0.58776558
   0.07011989  0.33064405  0.61502035
   0.02361310  0.76800478  0.67071155
   0.69396731  0.33551784  0.14986877
   0.20736728  0.75148742  0.60427554
   0.90839584  0.34264347  0.33565577
   0.44302667  0.11410653  0.16732520
   0.12324941  0.61135146  0.86158200
   0.39854619  0.37269722  0.71159110
   0.63158620  0.86971115  0.77874388
   0.60592139  0.84118211  0.48570472
   0.70105595  0.72247629  0.04750387
   0.16707252  0.17389013  0.09645861
   0.47000623  0.19903359  0.61199245
   0.80235330  0.29595802  0.00698959
   0.69918460  0.30535684  0.83851379
   0.48627491  0.92830366  0.15252619
   0.17299918  0.84071120  0.28599055
   0.09795561  0.34277302  0.36291985
   0.43930976  0.44595233  0.85960281
   0.63638802  0.21347069  0.69494001
   0.43176160  0.57703069  0.20310784
   0.79409592  0.16034268  0.23121987
   0.19646582  0.96846580  0.62795289
   0.05067662  0.84640332  0.09006533
   0.07083147  0.13537209  0.35643601
   0.76805044  0.94791816  0.56525070
   0.16486963  0.25661369  0.50364849
   0.55031666  0.59644961  0.79767891
   0.76486493  0.32927956  0.64267233
   0.11087811  0.72430194  0.42370860
   0.28173457  0.55641964  0.13087535
   0.37389421  0.02447906  0.35829854
   0.77476708  0.49380117  0.28124084
   0.28261457  0.86673227  0.74153936
Direct configuration=     3
   0.65247197  0.63800468  0.94777184
   0.48078499  0.08706234  0.92696736
   0.61406826  0.45046139  0.88072779
   0.12661559  0.20622907  0.97344072
   0.89104957  0.57358762  0.90509396
   0.30048491  0.59563050  0.89151716
   0.22650632  0.06928026  0.96913090
   0.81620572  0.96981508  0.95151381
   0.47416350  0.94387747  0.96296049
   0.06089732  0.72556584  0.98785416
   0.30910888  0.96125315  0.87793217
   0.75069484  0.17650836  0.93426151
   0.54663858  0.23645392  0.91697703
   0.93430464  0.76473391  0.00089788
   0.89962968  0.33641361  0.91390258
   0.11309182  0.87221131  0.90415505
   0.17971696  0.41763000  0.95826650
   0.72378379  0.79421361  0.90964461
   0.56795413  0.62349584  0.62250437
   0.10347719  0.30769285  0.83307253
   0.15923943  0.68975805  0.18528645
   0.20963695  0.07025423  0.51088380
   0.95423605  0.89413755  0.53746431
   0.33704694  0.18185724  0.49456016
   0.94961731  0.18972069  0.84645464
   0.45074304  0.96336952  0.53941116
   0.61823765  0.47699264  0.20359253
   0.72970012  0.03617404  0.03118984
   0.73795475  0.70561164  0.47450709
   0.11989908  0.43683397  0.73580792
   0.88746236  0.58506553  0.45215569
   0.60786623  0.00842768  0.87615737
   0.48811887  0.18632367  0.41630621
   0.37109814  0.85594893  0.22416157
   0.46761088  0.85213643  0.64511334
   0.07199122  0.05430176  0.66976762
   0.33942686  0.47471520  0.40318429
   0.28327882  0.08390735  0.66045199
   0.09581529  0.11054078  0.83178714
   0.86165833  0.68462165  0.30113636
   0.77733757  0.47290703  0.81767860
   0.46694610  0.40343774  0.34863717
   0.95559047  0.28615164  0.67806091
   0.23912965  0.59038602  0.56256416
   0.48587076  0.46936121  0.03033062
   0.82187234  0.83459529  0.01117039
   0.02856924  0.95715904  0.75758113
   0.66883706  0.28399626  0.32748369
   0.97390355  0.19461781  0.28667655
   0.77529913  0.37456474  0.46041032
   0.89519307  0.58236216  0.12549129
   0.14909276  0.48647807  0.42691234
   0.87204569  0.03222008  0.47452501
   0.71390317  0.76629488  0.24816476
   0.36594682  0.03382249  0.01570800
   0.82245196  0.04443184  0.84185403
   0.62098552  0.89600394  0.24003096
   0.42123937  0.63416112  0.51745435
   0.59224385  0.56657834  0.44256519
   0.12122891  0.27008591  0.21635677
   0.16143297  0.97701761  0.40893866
   0.48154703  0.72570850  0.30400035
   0.59323207  0.11369050  0.25545603
   0.26807729  0.38629738  0.20073360
   0.42561541  0.29902360  0.18536569
   0.84754401  0.15081822  0.59041158
   0.07515608  0.33124485  0.61287369
   0.02623630  0.76994090  0.66989445
   0.69310394  0.33262374  0.15276445
   0.20607012  0.75180433  0.60479312
   0.90852872  0.34456942  0.33780365
   0.44151667  0.11427376  0.16673024
   0.12307860  0.61057027  0.86156364
   0.39850092  0.37193931  0.70944034
   0.63199751  0.86931997  0.77641387
   0.60568185  0.84187391  0.48612634
   0.70270976  0.72498041  0.04977303
   0.17150687  0.17107304  0.11078601
   0.47254887  0.20001355  0.61293362
   0.80330817  0.29375985  0.01415921
   0.69914683  0.30475343  0.83770099
   0.48584448  0.92875388  0.15063553
   0.17219838  0.84031452  0.28815358
   0.09648570  0.34539120  0.36569847
   0.43652859  0.44727959  0.85729470
   0.64151423  0.21178631  0.69502270
   0.43276350  0.57760080  0.20187833
   0.78953471  0.16388425  0.23058566
   0.19231757  0.96669063  0.62894909
   0.05370692  0.84844008  0.09123893
   0.08129382  0.13047491  0.36155521
   0.76863558  0.94890309  0.56562389
   0.16368274  0.25590954  0.50516682
   0.54760300  0.59808022  0.79814558
   0.76281505  0.32723616  0.64427154
   0.11169855  0.72627219  0.42230151
   0.28001623  0.55334370  0.12988024
   0.37540653  0.02493395  0.35952850
   0.77610949  0.49050112  0.27902535
   0.28323060  0.86440206  0.73882522
Direct configuration=     4
   0.65404725  0.63394992  0.94282201
   0.48325079  0.08998689  0.92642090
   0.61565987  0.44646157  0.88009287
   0.12177684  0.20986522  0.96039626
   0.89082415  0.57651973  0.90477932
   0.30593620  0.59714013  0.89241028
   0.22358526  0.07132711  0.96958307
   0.81822681  0.96490286  0.95388241
   0.47545508  0.94363986  0.96027194
   0.06813690  0.72282318  0.98725947
   0.31150532  0.95947681  0.87420773
   0.74999222  0.17710488  0.93310310
   0.54724002  0.23691818  0.91461094
   0.93871619  0.75887655  0.00179753
   0.90686459  0.33587856  0.91005630
   0.11424638  0.87254980  0.90415305
   0.17926991  0.41791498  0.95557563
   0.72478017  0.79364353  0.90495317
   0.56768670  0.62138221  0.61983961
   0.10099486  0.30776008  0.83135430
   0.15887498  0.69092958  0.18574104
   0.21255818  0.07532509  0.51211995
   0.95464870  0.89161432  0.53912513
   0.33666512  0.18404803  0.49851370
   0.94344763  0.19295634  0.84692186
   0.44896665  0.96062182  0.53939377
   0.61933898  0.47490185  0.20464749
   0.72695098  0.03954053  0.03755732
   0.73425340  0.70696362  0.47401063
   0.12441426  0.43901421  0.73598027
   0.88749023  0.58649960  0.45114343
   0.60643813  0.00548313  0.87839253
   0.48918874  0.18773339  0.41838805
   0.36815862  0.85297159  0.22474869
   0.46830345  0.84973354  0.64442925
   0.07166682  0.06203122  0.66860673
   0.34031590  0.47325326  0.40032011
   0.28390438  0.08735903  0.66408391
   0.10039691  0.10657548  0.83228886
   0.85837346  0.68044228  0.30144486
   0.77613537  0.47335405  0.81394032
   0.46671742  0.40185687  0.34652727
   0.94764584  0.28090946  0.67914346
   0.23906366  0.59073119  0.56523226
   0.48407240  0.46957885  0.02870379
   0.81047891  0.84172382  0.01400981
   0.02714965  0.95274996  0.76254080
   0.67015773  0.28200617  0.33140600
   0.96391530  0.20343721  0.27654529
   0.77726250  0.37604182  0.46169894
   0.89226007  0.58311432  0.12382136
   0.14829712  0.48898692  0.42890131
   0.87474130  0.03244965  0.47103252
   0.71449573  0.77008847  0.24759138
   0.36167000  0.03189475  0.02047352
   0.82439095  0.04682509  0.83729082
   0.62406858  0.89550212  0.24194636
   0.42048528  0.63262842  0.51649983
   0.59149344  0.56543031  0.44442770
   0.12158031  0.27334347  0.21545807
   0.15920567  0.97324179  0.40409597
   0.48079916  0.72452146  0.30445675
   0.59097727  0.11435876  0.25745787
   0.26758802  0.38422091  0.19892879
   0.42653691  0.30041595  0.18483906
   0.84623257  0.15382697  0.59322713
   0.08080383  0.33236342  0.61047244
   0.02875979  0.77188176  0.66898598
   0.69249005  0.32971410  0.15549760
   0.20470627  0.75223312  0.60541188
   0.90833129  0.34670256  0.33988162
   0.43993878  0.11465190  0.16629405
   0.12288454  0.60967810  0.86140817
   0.39847727  0.37100025  0.70720639
   0.63231164  0.86883377  0.77385630
   0.60551937  0.84263276  0.48664238
   0.70456885  0.72771535  0.05321090
   0.17621885  0.16784446  0.12506303
   0.47503513  0.20102622  0.61401764
   0.80380604  0.29187329  0.02238983
   0.69902179  0.30434297  0.83678778
   0.48551466  0.92960727  0.14836510
   0.17144313  0.83995648  0.29012577
   0.09488973  0.34772518  0.36827069
   0.43367554  0.44868681  0.85509564
   0.64633378  0.21000513  0.69499218
   0.43408892  0.57811168  0.20071769
   0.78501467  0.16740868  0.22990546
   0.18808519  0.96384165  0.62965175
   0.05694312  0.85063061  0.09269273
   0.09222957  0.12530648  0.36714519
   0.76888313  0.94961370  0.56610904
   0.16283665  0.25498590  0.50636589
   0.54492895  0.59964585  0.79852632
   0.76100543  0.32529946  0.64575884
   0.11246270  0.72810974  0.42102343
   0.27801291  0.55039214  0.12873538
   0.37691414  0.02541724  0.36092745
   0.77776195  0.48732464  0.27688001
   0.28402971  0.86200833  0.73603313
Direct configuration=     5
   0.65525350  0.62948831  0.93763336
   0.48537098  0.09361519  0.92571008
   0.61684881  0.44291370  0.87970635
   0.11715580  0.21349652  0.94824829
   0.89074885  0.57939568  0.90465047
   0.31119687  0.59833101  0.89331603
   0.22001458  0.07341555  0.97000981
   0.82087318  0.96001986  0.95566757
   0.47693870  0.94242836  0.95766814
   0.07666422  0.71955753  0.98646808
   0.31382920  0.95763893  0.87064604
   0.74923889  0.17730475  0.93166757
   0.54796144  0.23773407  0.91215229
   0.94158122  0.75332877  0.00277373
   0.91389635  0.33596247  0.90633937
   0.11544122  0.87305353  0.90409841
   0.17884969  0.41827382  0.95289800
   0.72538111  0.79293153  0.89955961
   0.56739066  0.61949043  0.61731065
   0.09857592  0.30782547  0.82969325
   0.15855819  0.69213774  0.18607125
   0.21516074  0.08041230  0.51312256
   0.95500392  0.88906760  0.54082393
   0.33635683  0.18638089  0.50233734
   0.93761288  0.19570546  0.84726872
   0.44732900  0.95835793  0.53875204
   0.61988607  0.47296690  0.20569098
   0.72380539  0.04330694  0.04446215
   0.73072588  0.70811246  0.47351782
   0.12891938  0.44163255  0.73619946
   0.88743230  0.58795347  0.45016059
   0.60558611  0.00258086  0.88037339
   0.49038250  0.18912452  0.42018884
   0.36491080  0.84989975  0.22580828
   0.46922093  0.84692122  0.64422641
   0.07126164  0.07025100  0.66710770
   0.34059781  0.47225142  0.39789211
   0.28498605  0.09089637  0.66793370
   0.10490008  0.10271485  0.83274063
   0.85525906  0.67628125  0.30170251
   0.77513730  0.47374364  0.81029571
   0.46696215  0.40007248  0.34427307
   0.93962514  0.27577648  0.68032099
   0.23910777  0.59080943  0.56750823
   0.48241786  0.46975304  0.02736664
   0.79965353  0.84823104  0.01811515
   0.02557176  0.94790477  0.76768157
   0.67131955  0.28004951  0.33534922
   0.95427646  0.21168080  0.26675482
   0.77905452  0.37748619  0.46299890
   0.88935318  0.58386998  0.12229110
   0.14765632  0.49178382  0.43103112
   0.87757509  0.03281404  0.46754275
   0.71532165  0.77339452  0.24704165
   0.35771740  0.03008454  0.02568248
   0.82635816  0.04975687  0.83193719
   0.62686485  0.89536651  0.24389932
   0.41975134  0.63118464  0.51547357
   0.59076112  0.56439954  0.44616957
   0.12181324  0.27669883  0.21487485
   0.15700363  0.96912887  0.39912821
   0.48014429  0.72331027  0.30502143
   0.58898986  0.11477942  0.25944083
   0.26707803  0.38221696  0.19719856
   0.42745817  0.30166387  0.18426880
   0.84479175  0.15669624  0.59605024
   0.08628824  0.33388983  0.60833718
   0.03111449  0.77378267  0.66802414
   0.69208860  0.32687912  0.15805326
   0.20331479  0.75275826  0.60608862
   0.90780304  0.34908022  0.34190742
   0.43833282  0.11521696  0.16603097
   0.12275260  0.60866303  0.86111087
   0.39848586  0.36990787  0.70495002
   0.63251495  0.86829908  0.77113226
   0.60543042  0.84345633  0.48724299
   0.70636267  0.73029703  0.05727601
   0.18098000  0.16426474  0.13823846
   0.47742180  0.20206040  0.61521686
   0.80417496  0.29033326  0.03100618
   0.69884479  0.30412156  0.83579081
   0.48524254  0.93073580  0.14592403
   0.17076036  0.83959144  0.29178082
   0.09323258  0.34971466  0.37058462
   0.43086951  0.45012868  0.85304295
   0.65068655  0.20809649  0.69484757
   0.43564095  0.57854879  0.19961939
   0.78062622  0.17080450  0.22916443
   0.18396204  0.96028557  0.63001091
   0.06029020  0.85281870  0.09428909
   0.10265165  0.12053389  0.37252791
   0.76885503  0.95010118  0.56665440
   0.16239441  0.25376049  0.50709169
   0.54234068  0.60108040  0.79878158
   0.75949510  0.32359274  0.64707209
   0.11314498  0.72975359  0.41992864
   0.27582610  0.54764953  0.12749349
   0.37840986  0.02592572  0.36246126
   0.77968873  0.48435727  0.27483452
   0.28500120  0.85962264  0.73324258
Direct configuration=     6
   0.65625601  0.62493800  0.93257305
   0.48696417  0.09757191  0.92499729
   0.61754744  0.43990937  0.87957873
   0.11293746  0.21686995  0.93765042
   0.89075970  0.58215308  0.90465590
   0.31614771  0.59922016  0.89420648
   0.21602370  0.07545186  0.97042117
   0.82403338  0.95626889  0.95638158
   0.47835865  0.94051928  0.95525571
   0.08591903  0.71613294  0.98563677
   0.31600884  0.95588121  0.86739658
   0.74850516  0.17716182  0.93009322
   0.54880348  0.23895417  0.90964741
   0.94284923  0.74826505  0.00386152
   0.92039966  0.33675623  0.90311427
   0.11667150  0.87368306  0.90405713
   0.17845516  0.41868117  0.95027529
   0.72574344  0.79207582  0.89385442
   0.56706736  0.61784840  0.61502633
   0.09625813  0.30814432  0.82783674
   0.15831412  0.69334542  0.18627092
   0.21726709  0.08505078  0.51384971
   0.95528260  0.88658795  0.54248527
   0.33625422  0.18885456  0.50594604
   0.93233005  0.19768770  0.84744159
   0.44584780  0.95656065  0.53755526
   0.61989896  0.47121754  0.20670667
   0.72064787  0.04715772  0.05144751
   0.72745136  0.70902481  0.47302748
   0.13331063  0.44455398  0.73647903
   0.88729714  0.58937068  0.44925638
   0.60535700  0.99982211  0.88202610
   0.49164048  0.19047238  0.42171708
   0.36156259  0.84686491  0.22722135
   0.47033749  0.84381235  0.64445250
   0.07074998  0.07845748  0.66553821
   0.34029686  0.47171124  0.39591214
   0.28634230  0.09427972  0.67187214
   0.10915263  0.09900781  0.83303651
   0.85234192  0.67226397  0.30186415
   0.77437478  0.47408670  0.80685546
   0.46764395  0.39813400  0.34194969
   0.93211262  0.27103133  0.68143891
   0.23925293  0.59064185  0.56937663
   0.48092987  0.46988386  0.02631340
   0.78966514  0.85343182  0.02352292
   0.02393424  0.94308040  0.77260182
   0.67229037  0.27817255  0.33924085
   0.94541370  0.21912163  0.25749326
   0.78062592  0.37887338  0.46431250
   0.88651978  0.58462749  0.12091770
   0.14716531  0.49477664  0.43322979
   0.88045421  0.03328486  0.46421375
   0.71645624  0.77603104  0.24654100
   0.35428656  0.02836851  0.03100418
   0.82829317  0.05279987  0.82633848
   0.62915795  0.89573850  0.24581599
   0.41904958  0.62985099  0.51439624
   0.59006108  0.56348616  0.44772589
   0.12177042  0.28012673  0.21466203
   0.15498158  0.96492248  0.39443683
   0.47957719  0.72210508  0.30566492
   0.58727031  0.11493964  0.26134443
   0.26657772  0.38032972  0.19556122
   0.42837550  0.30274916  0.18365541
   0.84321704  0.15922573  0.59872251
   0.09115206  0.33578380  0.60676793
   0.03324248  0.77560530  0.66705166
   0.69182901  0.32422092  0.16043449
   0.20193649  0.75335752  0.60677341
   0.90699123  0.35168793  0.34390214
   0.43673489  0.11593654  0.16594781
   0.12274373  0.60751308  0.86065665
   0.39853242  0.36869718  0.70273686
   0.63259661  0.86776394  0.76829905
   0.60540907  0.84434311  0.48791869
   0.70790081  0.73240652  0.06153288
   0.18573319  0.16033722  0.15000051
   0.47966967  0.20310363  0.61649629
   0.80458283  0.28906465  0.03947884
   0.69865142  0.30407356  0.83471818
   0.48497787  0.93201783  0.14349383
   0.17017383  0.83915093  0.29299479
   0.09158282  0.35134781  0.37262615
   0.42820467  0.45155295  0.85115641
   0.65444204  0.20603406  0.69459816
   0.43731999  0.57890052  0.19857730
   0.77643942  0.17394533  0.22835638
   0.18005802  0.95635854  0.63001704
   0.06364980  0.85485966  0.09589447
   0.11216778  0.11650584  0.37740868
   0.76862609  0.95042317  0.56721031
   0.16237455  0.25218645  0.50724151
   0.53986818  0.60233633  0.79887338
   0.75831980  0.32222823  0.64815543
   0.11372050  0.73114803  0.41906067
   0.27356136  0.54518474  0.12621005
   0.37988859  0.02645521  0.36408614
   0.78183352  0.48167467  0.27290612
   0.28613537  0.85731399  0.73052748
Direct configuration=     7
   0.65717374  0.62052022  0.92788109
   0.48796963  0.10149304  0.92438496
   0.61772432  0.43749551  0.87970996
   0.10921606  0.21972967  0.92902527
   0.89079741  0.58474425  0.90474159
   0.32071818  0.59984300  0.89506710
   0.21185828  0.07736259  0.97086417
   0.82770024  0.95408136  0.95584203
   0.47950913  0.93817238  0.95311557
   0.09531566  0.71287009  0.98492720
   0.31799741  0.95429738  0.86454364
   0.74784022  0.17672791  0.92853378
   0.54976645  0.24061214  0.90713648
   0.94286236  0.74367796  0.00504500
   0.92624420  0.33829941  0.90055364
   0.11794162  0.87439611  0.90410012
   0.17808758  0.41911370  0.94774060
   0.72602601  0.79112328  0.88825247
   0.56671603  0.61647264  0.61306927
   0.09407034  0.30900991  0.82548361
   0.15815955  0.69451578  0.18633865
   0.21883057  0.08892010  0.51439109
   0.95547317  0.88425028  0.54404509
   0.33646314  0.19146180  0.50928255
   0.92767627  0.19876755  0.84743913
   0.44453297  0.95516509  0.53591765
   0.61942735  0.46966412  0.20768783
   0.71771889  0.05088419  0.05819107
   0.72447967  0.70968257  0.47253613
   0.13750272  0.44765281  0.73682197
   0.88710232  0.59070194  0.44847509
   0.60574733  0.99730183  0.88331138
   0.49291413  0.19175989  0.42299441
   0.35828669  0.84396947  0.22887938
   0.47161490  0.84054244  0.64501618
   0.07017120  0.08632334  0.66401694
   0.33949797  0.47159375  0.39435237
   0.28783085  0.09735364  0.67577615
   0.11305243  0.09545579  0.83308048
   0.84963399  0.66849149  0.30189330
   0.77384962  0.47439091  0.80370356
   0.46868205  0.39611244  0.33964499
   0.92550001  0.26688152  0.68247625
   0.23948902  0.59026496  0.57085022
   0.47962016  0.46997237  0.02552631
   0.78044173  0.85725432  0.03000444
   0.02226700  0.93855919  0.77707158
   0.67304557  0.27641453  0.34302484
   0.93750904  0.22573927  0.24880804
   0.78194667  0.38018559  0.46564615
   0.88379854  0.58538999  0.11970273
   0.14680512  0.49786591  0.43542303
   0.88329038  0.03381738  0.46116144
   0.71793554  0.77789196  0.24610734
   0.35142641  0.02674196  0.03618414
   0.83015139  0.05566726  0.82082594
   0.63081182  0.89669530  0.24765304
   0.41838837  0.62863783  0.51328807
   0.58940194  0.56268083  0.44904187
   0.12137574  0.28351558  0.21475482
   0.15319491  0.96080809  0.39027536
   0.47908433  0.72092827  0.30635751
   0.58580108  0.11483896  0.26312369
   0.26611473  0.37858541  0.19402871
   0.42928580  0.30366757  0.18299716
   0.84147215  0.16123153  0.60108977
   0.09520336  0.33801635  0.60587140
   0.03510285  0.77732329  0.66611025
   0.69161392  0.32184302  0.16265974
   0.20060936  0.75400353  0.60741934
   0.90598247  0.35445323  0.34586992
   0.43517190  0.11677730  0.16604320
   0.12288602  0.60621472  0.86002220
   0.39861867  0.36740628  0.70062433
   0.63255019  0.86726982  0.76540015
   0.60544912  0.84529157  0.48866099
   0.70905483  0.73379341  0.06569870
   0.19043751  0.15614798  0.16037423
   0.48175133  0.20414545  0.61782053
   0.80511575  0.28795421  0.04744740
   0.69847490  0.30417315  0.83356832
   0.48467972  0.93335187  0.14120820
   0.16970336  0.83854876  0.29365952
   0.08999863  0.35265774  0.37442056
   0.42574082  0.45290886  0.84943638
   0.65752216  0.20380276  0.69425999
   0.43904063  0.57915987  0.19758600
   0.77250019  0.17670967  0.22748975
   0.17641185  0.95233018  0.62969913
   0.06693755  0.85664500  0.09740319
   0.12061517  0.11339621  0.38162408
   0.76827287  0.95063525  0.56773858
   0.16273205  0.25028241  0.50680010
   0.53752477  0.60339053  0.79877539
   0.75748241  0.32129022  0.64896915
   0.11417174  0.73225475  0.41844554
   0.27130956  0.54304228  0.12493260
   0.38134306  0.02700277  0.36575848
   0.78412911  0.47933064  0.27109372
   0.28742165  0.85513727  0.72794503
Direct configuration=     8
   0.65808837  0.61637118  0.92368236
   0.48840995  0.10508756  0.92392716
   0.61739700  0.43567476  0.88008761
   0.10602059  0.22184414  0.92260351
   0.89081251  0.58713365  0.90485611
   0.32487931  0.60024658  0.89589599
   0.20774204  0.07908983  0.97140746
   0.83175946  0.95321264  0.95425368
   0.48025753  0.93559730  0.95129351
   0.10440963  0.70998506  0.98446585
   0.31977100  0.95293844  0.86211026
   0.74726526  0.17604493  0.92712150
   0.55084448  0.24270741  0.90465238
   0.94203706  0.73951918  0.00629141
   0.93142045  0.34052472  0.89867825
   0.11926152  0.87515751  0.90429037
   0.17774651  0.41955022  0.94531562
   0.72633240  0.79012329  0.88307825
   0.56633525  0.61536794  0.61149027
   0.09203933  0.31067133  0.82237651
   0.15810309  0.69561529  0.18627822
   0.21991745  0.09183658  0.51490698
   0.95556651  0.88211212  0.54545527
   0.33704300  0.19418423  0.51232246
   0.92363986  0.19899112  0.84731989
   0.44338854  0.95408003  0.53397285
   0.61853730  0.46830072  0.20863509
   0.71513621  0.05437677  0.06449857
   0.72183018  0.71008151  0.47204000
   0.14144284  0.45083384  0.73721989
   0.88687009  0.59191096  0.44785027
   0.60671407  0.99508796  0.88422835
   0.49416920  0.19297877  0.42404975
   0.35520858  0.84128127  0.23069272
   0.47300824  0.83724104  0.64581228
   0.06957869  0.09366527  0.66257435
   0.33831878  0.47183385  0.39315986
   0.28935176  0.10003845  0.67954708
   0.11655048  0.09204916  0.83280463
   0.84713558  0.66502947  0.30176575
   0.77354132  0.47466259  0.80089179
   0.46997158  0.39408542  0.33744581
   0.92003448  0.26346922  0.68349136
   0.23980577  0.58972279  0.57196521
   0.47848823  0.47002146  0.02498027
   0.77197692  0.86020700  0.03704691
   0.02056612  0.93448736  0.78098133
   0.67357528  0.27480079  0.34666396
   0.93062973  0.23161663  0.24070471
   0.78300299  0.38141164  0.46700952
   0.88121364  0.58615981  0.11863761
   0.14654545  0.50095945  0.43754568
   0.88601214  0.03436189  0.45845946
   0.71974215  0.77897643  0.24574817
   0.34908896  0.02521485  0.04105030
   0.83189754  0.05819321  0.81557112
   0.63178671  0.89823191  0.24939102
   0.41777274  0.62754615  0.51216670
   0.58878765  0.56196851  0.45007840
   0.12063063  0.28670742  0.21503574
   0.15162107  0.95695594  0.38678328
   0.47864664  0.71979311  0.30707475
   0.58455161  0.11448742  0.26475505
   0.26571361  0.37699498  0.19260434
   0.43018800  0.30442447  0.18228968
   0.83950230  0.16256135  0.60301061
   0.09843324  0.34053021  0.60560849
   0.03667138  0.77892195  0.66523734
   0.69133156  0.31984612  0.16475286
   0.19936793  0.75466480  0.60798771
   0.90487845  0.35726672  0.34779307
   0.43366104  0.11770962  0.16630765
   0.12317523  0.60476065  0.85918649
   0.39874323  0.36607146  0.69865452
   0.63237665  0.86684794  0.76246705
   0.60554571  0.84629999  0.48946319
   0.70975024  0.73426237  0.06962028
   0.19503603  0.15185877  0.16951103